8
Lattice="5.44370237 0.0 0.0 0.0 5.44370237 0.0 0.0 0.0 5.44370237" Properties=species:S:1:pos:R:3:forces:R:3 energy=-41.65196355 pbc="T T T"
Si       3.92824000       4.13135000       1.19955000       1.99143700       0.73742700       0.55773400
Si       5.43112000       2.69351000       2.56238000      -1.24702500       1.96939700       0.48279700
Si       4.17875000       1.44401000       3.98262000      -0.77581600      -2.07960000       0.09746500
Si       0.09824000       0.16194000       0.03168000      -0.46981900       0.25217800       0.73837700
Si       1.18707000       4.01063000       4.16423000       0.28700700      -0.68060400       0.32310200
Si       2.81653000       2.62757000       5.42482000      -1.32036000       0.12048700      -0.76491000
Si       1.64825000       1.51153000       1.72154000      -0.64516300      -0.33006400      -2.95003400
Si       2.48659000       5.19426000       2.68800000       2.17974000       0.01078000       1.51546700
8
Lattice="5.44370237 0.0 0.0 0.0 5.44370237 0.0 0.0 0.0 5.44370237" Properties=species:S:1:pos:R:3:forces:R:3 energy=-41.7829367 pbc="T T T"
Si       4.05641000       4.16397000       1.23677000      -1.76869800       0.01669900      -1.05012500
Si       5.27529000       2.72799000       2.44001000       0.69660400      -1.21168800       1.59492600
Si       4.27142000       1.17203000       4.04260000      -1.05828500       1.16772200       0.04419200
Si       0.14689000       0.13581000       0.22685000       0.71242000       0.49464600       0.16874300
Si       0.92760000       3.97923000       4.10709000       1.45926200       0.68908400      -0.22035900
Si       2.58565000       2.66757000       5.17202000       1.57616500       0.27625500       0.43740700
Si       1.77736000       1.65871000       1.66091000      -1.09667800      -1.30447100      -0.88431600
Si       2.73419000       5.26949000       2.88855000      -0.52079000      -0.12824700      -0.09046800
8
Lattice="5.44370237 0.0 0.0 0.0 5.44370237 0.0 0.0 0.0 5.44370237" Properties=species:S:1:pos:R:3:forces:R:3 energy=-42.60763032 pbc="T T T"
Si       4.13299000       3.90768000       1.59471000      -0.77651500       1.82310600      -1.18596600
Si       0.18574000       2.56809000       2.69013000      -1.15662900       1.11065600       1.98182000
Si       4.02838000       1.43004000       4.08607000       0.81076900      -0.47819500       0.37148500
Si       5.42222000       5.37239000       0.01480000      -1.56930500      -0.78876800      -0.46776700
Si       1.42189000       4.15244000       4.03238000      -0.46899600      -0.26567700       0.22027000
Si       2.69131000       2.78919000       0.02776000       0.79053900       0.41387400      -0.11195200
Si       1.25545000       1.38600000       1.17592000       1.51678400      -0.90868400      -0.08918500
Si       2.63683000       0.16899000       2.70934000       0.85335400      -0.90631200      -0.71870500
8
Lattice="5.44370237 0.0 0.0 0.0 5.44370237 0.0 0.0 0.0 5.44370237" Properties=species:S:1:pos:R:3:forces:R:3 energy=-40.57509035 pbc="T T T"
Si       3.90286000       4.28998000       1.05132000       1.66251200       0.45034700       2.44602300
Si       0.13117000       2.92190000       2.79130000      -1.11458800      -0.64824500      -0.78798600
Si       4.01749000       1.60248000       4.31177000       1.61459100       0.06408800      -1.80228800
Si       5.28880000       5.11074000       4.78684000       0.08768100       1.13393300       1.74650500
Si       1.72815000       3.95563000       4.19459000       0.31579400       0.09224700      -0.88999600
Si       2.67500000       2.52223000       0.46452000      -0.30397100       0.46635800      -0.93056700
Si       1.18160000       1.14088000       1.36018000      -1.62859500      -0.56887900       0.88016100
Si       2.84974000       0.23096000       2.81429000      -0.63342300      -0.98984900      -0.66185300
8
Lattice="5.44370237 0.0 0.0 0.0 5.44370237 0.0 0.0 0.0 5.44370237" Properties=species:S:1:pos:R:3:forces:R:3 energy=-42.64621479 pbc="T T T"
Si       4.14586000       4.18834000       1.27594000      -0.69407800      -0.66782200      -0.14764100
Si       5.36631000       2.88978000       2.69305000       1.20234600      -1.61688300       0.84445400
Si       3.98041000       1.24920000       3.93609000       1.11926300       1.50883200       0.37307200
Si       0.00664000       0.14856000       0.00852000      -0.01470200      -0.27311300      -0.89772900
Si       1.40915000       4.03556000       4.32298000      -1.53182600       0.48984200      -1.70343000
Si       2.77350000       2.66682000       5.43546000       0.97929800      -0.71214700       0.58841300
Si       1.38735000       1.36310000       1.34553000       0.03003300       0.59928300       1.64123200
Si       2.70558000       5.23345000       2.75724000      -1.09033400       0.67200900      -0.69837100
8
Lattice="5.44370237 0.0 0.0 0.0 5.44370237 0.0 0.0 0.0 5.44370237" Properties=species:S:1:pos:R:3:forces:R:3 energy=-39.96260945 pbc="T T T"
Si       4.04303000       4.41860000       1.22490000       1.64546200      -1.66535600       0.15348900
Si       0.09923000       2.83058000       2.93556000      -0.03414700       2.42691700      -1.48947000
Si       4.18674000       1.63810000       4.14158000      -1.87512400      -1.41842600       0.36808900
Si       5.05718000       5.05425000       4.64581000       1.22828000      -0.33368600       1.13559200
Si       1.77421000       3.92499000       4.20780000      -1.54954200       0.53796100      -0.04105800
Si       2.80627000       2.61521000       0.31597000      -0.19871000      -0.42921400       0.72628100
Si       1.14843000       1.35837000       1.61105000       0.61211700      -1.10337300      -1.66113100
Si       2.65972000       5.37840000       2.69214000       0.17166500       1.98517700       0.80820700
8
Lattice="5.44370237 0.0 0.0 0.0 5.44370237 0.0 0.0 0.0 5.44370237" Properties=species:S:1:pos:R:3:forces:R:3 energy=-40.57452105 pbc="T T T"
Si       4.35993000       4.25473000       1.42442000      -3.06448800       1.33767600      -1.36920800
Si       0.02301000       3.07012000       2.78030000       1.54228000      -3.45440100       1.93472700
Si       3.96313000       1.42346000       3.99649000       1.65098100       1.45057400       0.72365200
Si       5.08708000       4.94230000       4.82890000      -0.07811500       1.84872200       0.85257300
Si       1.58716000       4.05204000       4.26861000       1.34255200      -0.31117900      -0.63517400
Si       2.84680000       2.61236000       0.26046000      -0.32810400       0.11098100       0.32860100
Si       1.19699000       1.32949000       1.44891000      -0.33863000       0.14066800      -0.50655000
Si       2.71069000       0.09031000       2.76673000      -0.72647700      -1.12304000      -1.32862100
8
Lattice="5.44370237 0.0 0.0 0.0 5.44370237 0.0 0.0 0.0 5.44370237" Properties=species:S:1:pos:R:3:forces:R:3 energy=-40.87727742 pbc="T T T"
Si       4.24593000       4.35074000       1.30269000      -0.65200500      -0.95087800       1.12921900
Si       0.03605000       2.95391000       2.84112000      -0.04494500       0.29400500      -0.18851200
Si       4.08100000       1.54675000       4.06584000      -0.33130700      -0.78154000      -0.36059000
Si       5.05274000       4.96699000       4.73256000       1.16633600       0.91969500       0.27598500
Si       1.71603000       4.00187000       4.24185000      -1.17423700      -0.21620700       0.10744300
Si       2.84522000       2.62499000       0.26053000      -0.45635500      -0.21250700       1.04200800
Si       1.13787000       1.36896000       1.56782000       0.69546700      -0.71070000      -1.19765600
Si       2.65996000       5.40430000       2.76241000       0.79704600       1.65813100      -0.80789700
8
Lattice="5.44370237 0.0 0.0 0.0 5.44370237 0.0 0.0 0.0 5.44370237" Properties=species:S:1:pos:R:3:forces:R:3 energy=-39.94742335 pbc="T T T"
Si       3.90195000       4.36447000       1.11561000       2.03790800      -0.57576700       0.76771600
Si       0.20105000       2.90662000       2.92835000      -2.34867900      -0.81956400      -1.92376300
Si       4.10790000       1.62928000       4.29292000       0.20297800      -0.22956400      -1.79505100
Si       5.16461000       5.10031000       4.65361000       0.65217300      -0.13596000       1.80107700
Si       1.70752000       3.88833000       4.17548000       0.88542200       1.36537500       0.56977400
Si       2.72569000       2.53915000       0.44430000       0.27751600       0.66536500      -0.88726300
Si       1.25001000       1.25157000       1.48110000      -2.54212000      -0.32729100      -0.31124400
Si       2.71607000       0.09508000       2.68344000       0.83480100       0.05740600       1.77875300
8
Lattice="5.44370237 0.0 0.0 0.0 5.44370237 0.0 0.0 0.0 5.44370237" Properties=species:S:1:pos:R:3:forces:R:3 energy=-43.39444581 pbc="T T T"
Si       4.08278000       4.08278000       1.36093000       0.00000000       0.00000000       0.00000000
Si       0.00000000       2.72185000       2.72185000       0.00000000       0.00000000       0.00000000
Si       4.08278000       1.36093000       4.08278000       0.00000000       0.00000000       0.00000000
Si       0.00000000       0.00000000       0.00000000       0.00000000       0.00000000       0.00000000
Si       1.36093000       4.08278000       4.08278000       0.00000000       0.00000000       0.00000000
Si       2.72185000       2.72185000       0.00000000       0.00000000       0.00000000       0.00000000
Si       1.36093000       1.36093000       1.36093000       0.00000000       0.00000000       0.00000000
Si       2.72185000       0.00000000       2.72185000       0.00000000       0.00000000       0.00000000
8
Lattice="5.44370237 0.0 0.0 0.0 5.44370237 0.0 0.0 0.0 5.44370237" Properties=species:S:1:pos:R:3:forces:R:3 energy=-41.2391864 pbc="T T T"
Si       3.98039000       4.15713000       1.22215000       0.22305200      -0.24674900      -0.22889300
Si       5.39013000       2.71051000       2.56724000      -1.02966900       0.26613500      -1.79830000
Si       4.31555000       1.35039000       3.96337000      -2.48369700      -1.48608600       1.31102200
Si       0.12182000       0.15047000       0.11993000       0.10237000       0.05719400       0.18686900
Si       0.95450000       3.93531000       4.05695000       2.58626300       1.52645900       2.03828200
Si       2.65537000       2.59742000       5.40108000       1.36060000       1.56851600      -2.64332300
Si       1.78699000       1.63567000       1.69694000      -1.92928500      -1.70205600      -0.17404000
Si       2.57007000       5.23790000       2.74716000       1.17036600       0.01658800       1.30838300
8
Lattice="5.44370237 0.0 0.0 0.0 5.44370237 0.0 0.0 0.0 5.44370237" Properties=species:S:1:pos:R:3:forces:R:3 energy=-41.57456046 pbc="T T T"
Si       3.99126000       4.28053000       1.14424000       0.54543000      -0.56518700       2.15234100
Si       0.01386000       2.88945000       2.66710000       0.19835500      -0.19905600      -0.03096900
Si       4.05263000       1.59357000       4.22041000       1.36367300       0.69741400      -0.28448000
Si       5.36066000       5.18252000       4.97301000       0.55306400       1.13858900       0.92600500
Si       1.77224000       4.00212000       4.16374000      -1.06027500      -0.38640800      -1.21268800
Si       2.63329000       2.54790000       0.38594000      -0.38546000       0.01325000      -0.47498700
Si       1.03629000       1.04822000       1.35689000       0.45699900       0.63162600       0.77612300
Si       2.91459000       0.23050000       2.86347000      -1.67178700      -1.33022800      -1.85134400
8
Lattice="5.44370237 0.0 0.0 0.0 5.44370237 0.0 0.0 0.0 5.44370237" Properties=species:S:1:pos:R:3:forces:R:3 energy=-41.47948175 pbc="T T T"
Si       3.86132000       4.12456000       1.12710000       1.79020100      -0.26416100       1.63660800
Si       5.26179000       2.52150000       2.58768000       0.27508900       1.74133000       0.09403500
Si       4.16191000       1.24194000       4.24853000       0.92986700      -0.85490600      -1.26712100
Si       0.19340000       0.19229000       0.33240000      -1.94577800      -2.04833700      -1.52116700
Si       1.13845000       4.20108000       4.08673000      -0.97373200      -1.32940300      -0.31864400
Si       2.80138000       2.81095000       5.01279000      -1.95911900       0.30071900       1.77971200
Si       1.56879000       1.45163000       1.43829000       1.88744700       1.09690900       1.06934100
Si       2.78777000       5.23086000       2.94130000      -0.00397500       1.35784800      -1.47276400
8
Lattice="5.44370237 0.0 0.0 0.0 5.44370237 0.0 0.0 0.0 5.44370237" Properties=species:S:1:pos:R:3:forces:R:3 energy=-41.6876143 pbc="T T T"
Si       4.20102000       4.26034000       1.45361000      -0.32673000      -1.49694700       0.68160400
Si       0.16327000       2.88509000       2.90484000      -0.88218400      -1.39983000      -1.64015300
Si       3.98589000       1.43384000       4.01734000       0.82798700       0.99962400       0.18300400
Si       5.07685000       5.08103000       4.99479000       1.60370400       1.44604700       0.86870000
Si       1.57032000       4.05415000       4.22491000       0.80695300       0.56543400      -0.09716600
Si       2.82067000       2.62455000       0.25197000       0.13108500       0.71109800      -0.26849800
Si       1.26045000       1.28993000       1.28566000      -1.65778500       0.07862100      -0.13073200
Si       2.69634000       0.14587000       2.64168000      -0.50303100      -0.90404600       0.40324100
8
Lattice="5.44370237 0.0 0.0 0.0 5.44370237 0.0 0.0 0.0 5.44370237" Properties=species:S:1:pos:R:3:forces:R:3 energy=-41.86216254 pbc="T T T"
Si       3.85216000       4.10746000       1.21772000       2.52304900      -0.82602100       1.79516500
Si       5.33246000       2.51163000       2.74861000       1.02319400       1.79976400      -1.42781400
Si       4.19677000       1.27353000       4.26798000      -1.01621900      -0.43797100      -1.24253200
Si       0.02083000       0.03607000       0.22506000       0.89342700      -0.16116900       0.30811400
Si       1.16918000       4.24575000       4.01462000      -0.57822100      -1.73766500       0.00376500
Si       2.83147000       2.91051000       5.13873000      -2.28799900      -1.26693500       0.13495800
Si       1.59323000       1.40826000       1.36256000      -0.34048800       0.44061200       0.29613800
Si       2.77872000       5.28161000       2.79953000      -0.21674300       2.18938500       0.13220600
8
Lattice="5.44370237 0.0 0.0 0.0 5.44370237 0.0 0.0 0.0 5.44370237" Properties=species:S:1:pos:R:3:forces:R:3 energy=-42.43684516 pbc="T T T"
Si       4.12091000       4.10719000       1.45602000      -0.67490600       0.16445600      -1.76629400
Si       0.09047000       2.76872000       2.68997000      -2.02416300      -0.50819000       0.00765100
Si       4.16962000       1.47439000       4.08455000      -1.27502100      -0.68587100       0.02049600
Si       0.01973000       0.01406000       5.38688000      -0.22156300      -0.93057500      -0.05908000
Si       1.37848000       3.97221000       3.95134000       1.40687300       1.90879600       2.26839700
Si       2.66170000       2.66614000       0.07174000       0.48044300       0.26672600       0.13745300
Si       1.22958000       1.27822000       1.49978000       0.54715200       0.43664000      -2.61214800
Si       2.66062000       0.05018000       2.63454000       1.76118600      -0.65198100       2.00352600
8
Lattice="5.44370237 0.0 0.0 0.0 5.44370237 0.0 0.0 0.0 5.44370237" Properties=species:S:1:pos:R:3:forces:R:3 energy=-42.31922196 pbc="T T T"
Si       4.21397000       4.00552000       1.34164000      -0.47417800       0.65334900       0.88556100
Si       0.08005000       2.71743000       2.95269000       0.25162700       0.75049200      -2.92573400
Si       4.13217000       1.43313000       3.99549000      -2.89909600      -1.28373400       0.70448200
Si       5.33679000       0.01729000       5.27770000       0.41477100      -0.07422200       1.62125300
Si       1.30739000       4.15258000       4.08992000       2.78123900      -0.03020300       0.94678900
Si       2.81836000       2.61336000       0.15970000      -1.08426900       0.71008800      -1.30577500
Si       1.20721000       1.37407000       1.35504000       0.52755100      -0.38101400      -0.13309300
Si       2.67887000       0.01774000       2.60263000       0.48235500      -0.34475600       0.20651700
8
Lattice="5.44370237 0.0 0.0 0.0 5.44370237 0.0 0.0 0.0 5.44370237" Properties=species:S:1:pos:R:3:forces:R:3 energy=-41.86933148 pbc="T T T"
Si       3.99816000       4.15715000       1.19110000      -0.66950600      -0.38158900      -0.21603800
Si       5.24031000       2.64465000       2.44319000       0.46854700       0.03905600       1.75385900
Si       4.19327000       1.13705000       4.12358000       0.68996700       1.87361900       0.09575100
Si       0.18473000       0.16293000       0.29480000      -0.00477500      -0.03034300      -0.13869100
Si       1.01616000       4.06449000       4.13974000       0.09871200       0.26878200      -1.32323800
Si       2.64026000       2.74342000       5.02100000       1.02200400      -0.47952900       2.29008100
Si       1.68681000       1.58866000       1.59465000       0.09058200      -0.73336000      -1.00867200
Si       2.81511000       5.27648000       2.96676000      -1.69553100      -0.55663700      -1.45305200
8
Lattice="5.44370237 0.0 0.0 0.0 5.44370237 0.0 0.0 0.0 5.44370237" Properties=species:S:1:pos:R:3:forces:R:3 energy=-42.22780171 pbc="T T T"
Si       4.07422000       4.25181000       1.31286000      -0.50394500      -0.86244500      -0.35909300
Si       5.40291000       2.85274000       2.60468000       1.30195200       0.01441200       0.75592500
Si       4.15454000       1.62658000       4.15214000      -0.61822000      -0.64497000       0.12395700
Si       5.41904000       5.29045000       5.13409000       0.19310000       0.11425100      -0.11774900
Si       1.73656000       4.00346000       4.07833000      -1.71849900      -0.49377200      -0.34021400
Si       2.59535000       2.56427000       0.30238000       0.42762200       0.26898300      -0.28763600
Si       0.97272000       1.04540000       1.40059000       1.67587300       1.06874000       0.57255700
Si       2.86318000       0.14010000       2.78974000      -0.75788300       0.53480200      -0.34774700
8
Lattice="5.44370237 0.0 0.0 0.0 5.44370237 0.0 0.0 0.0 5.44370237" Properties=species:S:1:pos:R:3:forces:R:3 energy=-42.29824468 pbc="T T T"
Si       4.12497000       4.17255000       1.45437000      -0.99822600      -0.08501100      -2.35528100
Si       0.02207000       2.80414000       2.61648000       0.37810500       0.39821100       1.26718500
Si       4.21369000       1.59273000       4.10082000      -1.77562700      -1.22449900       0.44745100
Si       0.01590000       5.40061000       5.27005000      -0.22520100      -0.79443400      -0.17971100
Si       1.56106000       3.96877000       3.97101000      -0.53968600       0.39317300       1.02382800
Si       2.60631000       2.60428000       0.19181000       0.77084700       0.38133600      -0.11949500
Si       1.04833000       1.15699000       1.49486000       1.74888100       0.19652700      -1.39430300
Si       2.73877000       0.07474000       2.67541000       0.64090700       0.73469700       1.31032600
